BEGIN_CFG
 Size
    30
 Supercell
        16.715298      0.000000      0.000000
         0.000000     15.147390      0.000000
         0.000000      0.000000     14.291303
 AtomData:  id type       cartes_x      cartes_y      cartes_z           fx          fy          fz
             1    0      10.711000      9.393490      4.778240    -0.075028   -0.074766    0.047991
             2    0      10.127180      9.591710      8.841830    -0.009264   -0.071011   -0.048046
             3    0       9.781020      7.076420      9.004490    -0.061928    0.058692   -0.093495
             4    0      11.106250      5.834370      6.905570    -0.061473    0.045874   -0.054956
             5    0      10.319240      8.239700      6.767690    -0.060927   -0.034595    0.051973
             6    0      11.839930      9.981860      6.963780    -0.076623   -0.068523    0.016339
             7    0      12.384380      7.748190      5.795570    -0.095853   -0.002469    0.021416
             8    0      12.075350      7.853650      8.346140    -0.087257   -0.029363   -0.056376
             9    0       9.207920     10.437110      6.598110    -0.008867   -0.099857    0.031543
            10    0       9.316840      4.550260      5.564090     0.000951    0.106385    0.071963
            11    0      10.148530      6.815780      4.756320    -0.073336    0.035553    0.083736
            12    0       9.080120      4.696400      8.307310    -0.004381    0.105571   -0.014221
            13    0       6.886390      4.880670      6.740210     0.053444    0.049211    0.027997
            14    0       7.488000      6.175610      4.647100     0.051913    0.053692    0.097550
            15    0       5.821770      8.209020      4.551520     0.090023   -0.011788    0.087471
            16    0       8.312890      8.515820      5.156660    -0.016843   -0.032610    0.108340
            17    0       6.518580      7.340120      6.605350     0.121351   -0.001651    0.038242
            18    0       8.747050      6.456830      6.726370    -0.038948    0.079306    0.062404
            19    0       6.542740      9.802690      6.374480     0.048189   -0.028405    0.020106
            20    0       4.388620      8.341470      6.731920     0.094381   -0.028047    0.017458
            21    0       8.183810      8.573510      7.793150     0.017270   -0.094067   -0.030301
            22    0       7.417710     10.629670      8.603120    -0.001176   -0.082853   -0.053693
            23    0       5.884520      8.477840      8.771140     0.070017   -0.049824   -0.053858
            24    0       8.086190      8.609850     10.123220    -0.019109   -0.007401   -0.121755
            25    0       5.065750      6.107880      8.075070     0.067335    0.043023   -0.026194
            26    0       7.356700      6.469030      8.895320     0.038893    0.118981   -0.053367
            27    0       6.533060      4.248980      9.015000     0.029824    0.098317   -0.058469
            28    0       4.922640      6.043170      5.542940     0.086919    0.047014    0.019775
            29    1       4.822750     10.675940      8.043220     0.028988   -0.116781   -0.034697
            30    1      11.652600      5.433810      9.344630    -0.108483   -0.007608   -0.104874
 Energy
        -93.120489370000
 Feature   EFS_by	VASP
END_CFG

BEGIN_CFG
 Size
    30
 Supercell
        16.883546      0.000000      0.000000
         0.000000     14.685696      0.000000
         0.000000      0.000000     14.584654
 AtomData:  id type       cartes_x      cartes_y      cartes_z           fx          fy          fz
             1    0       4.425400      5.496360      5.904450     0.102586    0.020401    0.017128
             2    0       5.936900      7.273470      5.104860     0.085389    0.002480    0.061694
             3    0       8.467760      6.890030      5.663190     0.002315    0.056644    0.072154
             4    0       6.664850      5.519160      6.774820     0.079219    0.102622    0.060804
             5    0      10.518940      6.755380      7.183040    -0.104358    0.022878    0.009411
             6    0      10.587050      8.172430      5.161030    -0.069848    0.012087    0.117965
             7    0      10.188440      5.520660      9.281620    -0.041189    0.108076   -0.094970
             8    0       7.292860      4.896990      9.187910     0.042932    0.095204   -0.060984
             9    0       9.105300      4.689570      7.125220    -0.028711    0.104997    0.030394
            10    0      11.730450      4.764480      7.317500    -0.096199    0.059938    0.000793
            11    0      12.567180      6.870700      6.089120    -0.119722    0.003661    0.021110
            12    0      10.574770      5.506010      5.145510    -0.065617    0.067541    0.090441
            13    0       8.360260      6.750500      8.252130     0.017112    0.031941   -0.051682
            14    0       7.902360      9.042600      9.283950     0.016475   -0.101407   -0.091508
            15    0       6.129440      7.210540      9.328300     0.090595    0.000461   -0.100506
            16    0       8.374220      6.850260     10.577370     0.014688    0.000044   -0.136582
            17    0      10.280590      8.092240      9.347420    -0.049027   -0.054933   -0.073501
            18    0      12.352850      6.813280      8.655130    -0.100116    0.010754   -0.043308
            19    0       6.874370      8.185510      7.099520     0.087636   -0.049202    0.024586
            20    0       9.209870      8.786140      7.130470    -0.045732   -0.109636   -0.013131
            21    0      11.670940      8.955840      7.360470    -0.096361   -0.039216   -0.006972
            22    0       7.903270      9.263410      5.117960     0.015726   -0.060969    0.072448
            23    0       5.480130      9.633430      5.951060     0.071783   -0.086457    0.040059
            24    0      10.135240     10.519640      5.923380    -0.027677   -0.084437    0.054465
            25    0       5.530540      9.525380      8.479520     0.078026   -0.074308   -0.046245
            26    0       7.513400     10.572700      7.293650     0.026896   -0.075472   -0.000225
            27    0       4.592040      7.495110      7.277280     0.114266    0.009105   -0.026027
            28    0       9.990400     10.461000      8.523780    -0.040161   -0.098600   -0.033961
            29    1       4.779930      5.164590      8.510040     0.095044    0.042783   -0.052908
            30    1       8.113460      4.608030      4.720100    -0.055971    0.083020    0.159060
 Energy
        -92.936118980000
 Feature   EFS_by	VASP
END_CFG

BEGIN_CFG
 Size
    30
 Supercell
        16.667261      0.000000      0.000000
         0.000000     15.702964      0.000000
         0.000000      0.000000     14.410683
 AtomData:  id type       cartes_x      cartes_y      cartes_z           fx          fy          fz
             1    0       4.253990      7.226280      6.117780     0.107583    0.052413    0.041855
             2    0       6.374190      7.211920      7.084570     0.088068    0.045266    0.005615
             3    0       9.723030      5.395790      8.789810    -0.028032    0.093848   -0.039664
             4    0       6.855110      5.865420      9.095200     0.040671    0.090287   -0.100610
             5    0       8.019520      5.215300      6.894680    -0.008134    0.093938    0.061774
             6    0      10.358070      4.209900      6.611710    -0.071760    0.082646    0.008814
             7    0       8.528390      7.323310      8.101590    -0.014761    0.036873   -0.078494
             8    0       8.926320      9.495720      9.267220    -0.005171   -0.090929   -0.073644
             9    0       6.625290      8.419300      9.390170     0.056617   -0.036211   -0.105969
            10    0       8.723380      7.217270     10.405380    -0.018297    0.026111   -0.131456
            11    0      10.821970      7.717080      8.989560    -0.092802    0.017262   -0.080545
            12    0       6.728140     10.889770      8.708020     0.062749   -0.087638   -0.042098
            13    0       5.051160      9.290830      7.540400     0.082962   -0.066840   -0.032661
            14    0       5.290290      5.150890      7.204560     0.087742    0.056398    0.003446
            15    0       4.615580      7.080390      8.675040     0.111575    0.046835   -0.055072
            16    0      10.628010      8.271900      4.764130    -0.058774    0.008143    0.131925
            17    0       8.308130      7.603690      5.475380     0.036435   -0.004890    0.084667
            18    0      10.346050      6.533720      6.485310    -0.061840    0.088527   -0.019214
            19    0       6.086750      8.852150      5.210430     0.095970   -0.076200    0.093776
            20    0       9.866800      8.912340      6.936580    -0.058475   -0.072488    0.016259
            21    0       7.493070      9.332540      7.178000     0.076152   -0.083600   -0.035376
            22    0       8.571310     10.082150      5.117850    -0.007104   -0.105863    0.092227
            23    0      11.180400     10.451740      5.830220    -0.081731    0.004372    0.068348
            24    0       6.398960     11.113540      6.188420     0.052843   -0.100268    0.029990
            25    0      11.286100     10.129120      8.339550    -0.086990   -0.075983   -0.009641
            26    0       9.096820     11.188820      7.332100    -0.044691   -0.122811   -0.005090
            27    0      12.179570      8.234630      6.857040    -0.131916   -0.020542    0.012669
            28    0       9.063490      5.417570      4.717740    -0.054856    0.028821    0.106089
            29    1       6.415210      5.986280      4.829310     0.056731    0.084219    0.126730
            30    1      12.193830      5.725140      8.022470    -0.130765    0.088305   -0.074647
 Energy
        -92.623756470000
 Feature   EFS_by	VASP
END_CFG

BEGIN_CFG
 Size
    30
 Supercell
        16.851891      0.000000      0.000000
         0.000000     14.864293      0.000000
         0.000000      0.000000     14.428545
 AtomData:  id type       cartes_x      cartes_y      cartes_z           fx          fy          fz
             1    0       4.315150      6.848930      5.904560     0.123443    0.002418    0.088331
             2    0       6.577390      5.519880      9.200820     0.060411    0.037653   -0.065009
             3    0      10.768440      7.457670      9.227340    -0.073407    0.030889   -0.093256
             4    0       8.471650      6.688710      8.231310    -0.012667    0.049379   -0.047737
             5    0       6.368730      6.680340      7.055230     0.069462    0.028029   -0.004954
             6    0      10.011170      5.185320      9.389010    -0.081042    0.060817   -0.066218
             7    0       4.458220      6.745420      8.480050     0.084376    0.020652   -0.049486
             8    0       8.441110      6.873440     10.524250     0.000147    0.025844   -0.071181
             9    0       9.082880     10.658980      7.213720     0.010744   -0.113158    0.005039
            10    0      11.162880      9.773180      8.407300    -0.076200   -0.098038   -0.059322
            11    0       7.540880      8.760090      7.116820     0.037906   -0.068672    0.008589
            12    0       8.814250      9.067430      9.237540    -0.014762   -0.063649   -0.096842
            13    0       6.479770      8.009730      9.277050     0.066451   -0.011272   -0.090027
            14    0       6.571980     10.515150      5.938830     0.034251   -0.080459    0.054010
            15    0       5.097190      8.871550      7.236590     0.069786   -0.048714    0.003796
            16    0       6.666000     10.404960      8.525680     0.037222   -0.116035   -0.062562
            17    0       6.342010      5.622700      4.917670     0.081538    0.089607    0.083711
            18    0       8.413760      6.886430      5.533320    -0.029335    0.059130    0.078814
            19    0       7.975070      4.779520      6.677560     0.041721    0.124581    0.086217
            20    0       6.314790      8.195460      5.057020     0.061414   -0.048291    0.076476
            21    0       9.866340      8.320570      7.074420    -0.030758   -0.050063    0.003532
            22    0      12.291180      5.668190      8.432750    -0.119181    0.035215   -0.048299
            23    0      12.213170      7.803410      7.130360    -0.092228   -0.016929    0.016869
            24    0      10.789150      7.496420      5.005650    -0.062387    0.008204    0.059510
            25    0      10.333190      5.794060      7.045000    -0.077685    0.063864   -0.007276
            26    0      11.163740      9.843540      5.879440    -0.068618   -0.087985    0.051030
            27    0       8.771710      9.286070      5.056990     0.009854   -0.055588    0.053373
            28    0       9.888350      5.123070      4.814700    -0.072671    0.067102    0.066364
            29    1      12.446600      5.569620      5.715440    -0.100112    0.077954    0.062154
            30    1       5.141580      4.514570      7.121740     0.122325    0.077515   -0.035645
 Energy
        -92.917967790000
 Feature   EFS_by	VASP
END_CFG

BEGIN_CFG
 Size
    30
 Supercell
        17.896797      0.000000      0.000000
         0.000000     15.161656      0.000000
         0.000000      0.000000     13.555459
 AtomData:  id type       cartes_x      cartes_y      cartes_z           fx          fy          fz
             1    0       7.718280     10.034140      5.999770     0.059204   -0.112000    0.037850
             2    0       7.780310      8.182050      4.397610     0.034867   -0.037329    0.117293
             3    0       7.880930      5.884770      5.122210     0.039039    0.090683    0.081997
             4    0       5.578590     10.016080      7.286590     0.056108   -0.097742   -0.050248
             5    0       5.652520      9.174850      5.054380     0.068614   -0.073848    0.044213
             6    0       5.616370      6.793070      4.636170     0.080441    0.023308    0.060912
             7    0       5.916910      4.934600      6.233070     0.050577    0.120285    0.030911
             8    0       9.824980     10.126710      7.284880    -0.042374   -0.117262   -0.005783
             9    0       9.939950      9.361990      4.987420    -0.045553   -0.068401    0.108242
            10    0      10.002220      7.034040      4.305820    -0.052206    0.030886    0.132267
            11    0      12.150280      8.391160      4.393310    -0.104202   -0.019136    0.098697
            12    0      12.214440      6.027620      4.973340    -0.070628   -0.002316    0.043630
            13    0      12.158940      9.848570      6.359270    -0.073431   -0.121099    0.046133
            14    0       6.528380      7.282010      6.793260     0.071627    0.037094    0.000007
            15    0       8.838830      7.762920      6.746090     0.064808   -0.024875    0.004684
            16    0       4.292620      7.946850      6.675160     0.140475   -0.070837   -0.014718
            17    0      10.096640      5.394770      6.094580    -0.041277    0.090915    0.014294
            18    0       9.867900      8.567640      9.140850    -0.021579   -0.025422   -0.099879
            19    0      10.114110      6.292720      8.499100     0.006894    0.068581   -0.089270
            20    0      12.245420      5.609300      7.424270    -0.076259    0.056445   -0.031428
            21    0      12.193700      7.715510      8.714470    -0.096140    0.019980   -0.085310
            22    0      13.469420      7.635700      6.485690    -0.065586   -0.007421   -0.023796
            23    0       7.661910      9.447790      8.363510     0.057121   -0.056718   -0.021159
            24    0       7.834880      7.124750      9.037490     0.019068    0.028073   -0.125478
            25    0       8.048150      5.179900      7.510350     0.049301    0.114400   -0.030951
            26    0       5.588020      8.170890      8.865230     0.046565    0.003768   -0.045825
            27    0       5.841000      5.748000      8.529850     0.077281    0.083316   -0.091769
            28    0      11.152280      7.662930      6.506510    -0.134657    0.000040   -0.009021
            29    1      10.404290      3.815890      8.042520    -0.031396    0.152052   -0.049500
            30    1      11.839730     10.257650      8.869110    -0.066701   -0.085418   -0.046997
 Energy
        -92.765173390000
 Feature   EFS_by	VASP
END_CFG

BEGIN_CFG
 Size
    30
 Supercell
        17.770610      0.000000      0.000000
         0.000000     14.774258      0.000000
         0.000000      0.000000     13.626558
 AtomData:  id type       cartes_x      cartes_y      cartes_z           fx          fy          fz
             1    0       9.723170      6.319440      4.657310    -0.019444    0.036751    0.134755
             2    0       7.574900      5.011220      7.892670     0.039791    0.160340   -0.069334
             3    0      10.197500      9.770790      6.948780    -0.018865   -0.139785    0.006108
             4    0       9.944840      8.217280      8.826630    -0.053269   -0.024331   -0.050055
             5    0       9.769570      5.795990      8.780070    -0.040804    0.094578   -0.059754
             6    0      11.839100      4.745620      7.844240    -0.059682    0.090876   -0.027128
             7    0      11.772830      9.684660      9.053540    -0.084442   -0.105928   -0.091412
             8    0      12.468980      8.688090      7.034250    -0.035632   -0.077430   -0.020374
             9    0      13.319200      6.393600      6.741070    -0.088014    0.025583   -0.038148
            10    0      12.004810      7.501880      4.786870    -0.067154   -0.010868    0.065924
            11    0       9.641480      4.684620      6.560030    -0.015440    0.127383   -0.023978
            12    0      10.969120      6.730090      6.823160    -0.075082    0.058442   -0.028000
            13    0      11.794640      5.057330      5.296530    -0.056322    0.093007    0.068322
            14    0       7.551480      5.327550      5.377780     0.046400    0.067163    0.047832
            15    0       7.569070      7.662830      4.515680     0.045838   -0.011934    0.113592
            16    0       7.860740      9.785240      5.731300     0.037823   -0.112903    0.074446
            17    0       7.965850      9.512270      8.171290     0.031993   -0.103267   -0.021015
            18    0       7.722170      7.201190      9.026590     0.008601    0.048517   -0.073801
            19    0       5.508430      6.132510      8.803600     0.057375    0.059115   -0.085775
            20    0       5.389990      4.889590      6.634840     0.078178    0.049691   -0.004096
            21    0       5.389740      6.509390      4.762890     0.084903    0.046666    0.084553
            22    0       5.652620      8.604170      8.411770     0.079588   -0.061630   -0.085165
            23    0       4.199230      7.145610      6.908110     0.078970   -0.007144   -0.030708
            24    0       9.814890      8.755830      4.670010    -0.035051   -0.086415    0.121299
            25    0       6.539640      7.016950      6.815090     0.078053   -0.002513   -0.020762
            26    0       8.810310      7.627300      6.688990    -0.011313    0.000949    0.009940
            27    0       5.547340      8.854720      5.560250     0.077486   -0.057300    0.046300
            28    0      12.097860      7.059880      8.914930    -0.068906    0.041050   -0.090090
            29    1      11.950520     10.108370      5.005010    -0.093989   -0.095523    0.022042
            30    1       5.969150     10.819850      7.155110     0.078411   -0.103139    0.024483
 Energy
        -92.736721470000
 Feature   EFS_by	VASP
END_CFG

BEGIN_CFG
 Size
    30
 Supercell
        17.811079      0.000000      0.000000
         0.000000     15.667165      0.000000
         0.000000      0.000000     13.419951
 AtomData:  id type       cartes_x      cartes_y      cartes_z           fx          fy          fz
             1    0       7.826690      5.659810      5.075430     0.056806    0.118635    0.083267
             2    0       7.786840      5.277910      7.530860     0.072539    0.131135   -0.007886
             3    0      12.015960      9.553660      8.405730    -0.098212   -0.050457   -0.030119
             4    0      11.151850      7.620890      6.805070    -0.117063    0.052178    0.014513
             5    0       9.910600      6.078300      8.605260    -0.048254    0.085474   -0.095579
             6    0       9.953830      6.772490      4.443880    -0.046431    0.051481    0.078562
             7    0       9.998370      5.227000      6.320020    -0.080488    0.111520    0.044939
             8    0      12.180620      5.533200      7.582070    -0.086957    0.082653   -0.077131
             9    0      12.028550      7.299760      9.144100    -0.077342    0.007758   -0.083012
            10    0      12.028040      9.980450      6.005050    -0.087182   -0.072080    0.029024
            11    0       8.838200      7.482900      6.712530     0.078650    0.011218   -0.004698
            12    0      13.395110      8.028440      6.955080    -0.034205    0.022690    0.023347
            13    0      12.153340      8.079700      4.575330    -0.086555   -0.026854    0.071647
            14    0       7.665160      7.252060      8.960970     0.024950    0.021382   -0.103911
            15    0       7.881540     10.214620      5.853840     0.008849   -0.105281    0.028603
            16    0       5.613660      6.842120      5.130650     0.061236    0.072313    0.020152
            17    0       5.551230      6.358410      7.836180     0.060854    0.055148   -0.002473
            18    0       5.704410     10.438780      7.185270     0.111302   -0.094169   -0.030033
            19    0       5.672370      9.365780      4.925860     0.089059   -0.091412    0.068196
            20    0       5.555850      8.610140      8.917140     0.098561   -0.037625   -0.106795
            21    0       4.303350      8.308810      6.752500     0.101681   -0.018138    0.022964
            22    0       6.653470      8.281240      6.812610     0.052862   -0.054750   -0.013418
            23    0       9.852160      8.448690      9.095020    -0.005671   -0.001764   -0.055113
            24    0       7.772100      9.683940      8.463320     0.006863   -0.078792   -0.120056
            25    0      10.112130     11.434300      5.369930    -0.042093   -0.093784    0.076382
            26    0       7.741100      8.036960      4.511810     0.027283   -0.017179    0.112349
            27    0       9.889980      9.943710      7.243730     0.001568   -0.104017   -0.039020
            28    0       9.934430      9.111740      4.924800    -0.002306   -0.051063    0.093746
            29    1       5.773120      4.486920      6.118280     0.066389    0.077734    0.005436
            30    1      12.222120      5.594730      5.036960    -0.106691   -0.003954   -0.003884
 Energy
        -92.747119630000
 Feature   EFS_by	VASP
END_CFG

BEGIN_CFG
 Size
    30
 Supercell
        17.928790      0.000000      0.000000
         0.000000     15.241410      0.000000
         0.000000      0.000000     13.471667
 AtomData:  id type       cartes_x      cartes_y      cartes_z           fx          fy          fz
             1    0       9.909550      5.285040      5.929610    -0.013697    0.120838    0.033347
             2    0      10.051080      5.864300      8.367510    -0.066975    0.048881   -0.102372
             3    0      10.187350      8.175610      9.101920    -0.043902   -0.031759   -0.131619
             4    0      10.180520     10.039330      7.572560    -0.048038   -0.114386   -0.040729
             5    0      12.145930      6.011120      4.979820    -0.073137    0.043557    0.067672
             6    0      12.095960      5.094290      7.201410    -0.085837    0.072362   -0.011219
             7    0      12.277740      6.786660      8.948260    -0.090172    0.010524   -0.100544
             8    0      12.335960      8.422920      4.789800    -0.078112   -0.001846    0.092290
             9    0      13.586350      7.232670      6.780790    -0.115948   -0.044107    0.016720
            10    0       7.844110      5.454340      7.298630     0.061177    0.123495   -0.020553
            11    0       7.947400      6.989590      9.149120     0.038724    0.038357   -0.111792
            12    0      11.296430      7.428480      6.785010    -0.120977   -0.012869    0.009055
            13    0       9.014110      7.800950      6.782270     0.005785    0.017112   -0.001187
            14    0      12.396930      9.092060      8.241640    -0.105760   -0.076404   -0.089982
            15    0       7.985630      9.353520      8.624800     0.039666   -0.072327   -0.126259
            16    0       8.022110     10.160290      6.340250     0.005760   -0.105615    0.026883
            17    0       7.985430      8.654620      4.440020     0.065432   -0.022721    0.115417
            18    0       7.835020      6.329070      4.953860     0.032030    0.064652    0.111034
            19    0       5.711070      5.613380      6.019030     0.079635    0.037548    0.026467
            20    0       5.732030      5.974620      8.446300     0.101428    0.058710   -0.019523
            21    0       5.813050      8.265780      9.162180     0.058590    0.002586   -0.107131
            22    0       5.701570      7.620710      4.672430     0.074918    0.001501    0.120497
            23    0       4.423160      7.605970      7.009600     0.114237   -0.017448    0.013169
            24    0      10.166750      9.612420      5.156060    -0.055721   -0.068392    0.067420
            25    0      10.095380      7.299510      4.484300    -0.046408    0.019660    0.119076
            26    0       6.713170      7.783970      6.908660     0.071639   -0.032938    0.010389
            27    0       5.726260      9.927710      7.429130     0.109517   -0.106112   -0.052636
            28    0       7.534700      4.016190      5.434010     0.085608    0.128881    0.037060
            29    1      12.319460     10.568670      6.181430    -0.075009   -0.036063    0.023235
            30    1       5.897620     10.157380      4.884600     0.075547   -0.045678    0.025817
 Energy
        -92.745656820000
 Feature   EFS_by	VASP
END_CFG

BEGIN_CFG
 Size
    30
 Supercell
        16.709968      0.000000      0.000000
         0.000000     15.132892      0.000000
         0.000000      0.000000     14.097735
 AtomData:  id type       cartes_x      cartes_y      cartes_z           fx          fy          fz
             1    0       7.347010      9.442320      5.654630     0.021967   -0.117107    0.063960
             2    0       7.389300      7.278180      4.485660     0.023441    0.017387    0.117299
             3    0       7.377630      5.264990      5.859130     0.044703    0.172885    0.078254
             4    0       7.600430      5.054360      8.242580     0.032062    0.095574   -0.040593
             5    0       7.537700      7.144990      9.421810     0.036565    0.049403   -0.101910
             6    0       7.350380      9.219140      8.280740     0.068644   -0.143687   -0.103332
             7    0       5.280280      9.713140      7.058470     0.089986   -0.102398    0.001769
             8    0       5.200110      8.588480      4.815930     0.076744   -0.035352    0.146734
             9    0       5.189610      6.154110      5.051730     0.077713    0.038998    0.074190
            10    0      11.109640      7.401650      6.949890    -0.065214    0.026375   -0.015507
            11    0       5.198690      7.884720      8.866810     0.113437    0.043965   -0.109103
            12    0       3.877970      7.566070      6.742900     0.179323   -0.024248   -0.013918
            13    0       9.763520      6.065020      9.087630    -0.081193    0.050524   -0.078794
            14    0       9.585590      8.458560      9.022540    -0.095602   -0.043862   -0.133202
            15    0       9.446510      9.763560      6.804550    -0.042220   -0.088943    0.058140
            16    0       9.536850      8.466070      4.779470    -0.069094   -0.018060    0.132506
            17    0       9.564150      6.069060      4.844170    -0.040362    0.056656    0.122091
            18    0       9.701470      4.891390      6.982040    -0.087915    0.120858   -0.001687
            19    0      11.759920      5.309500      5.766920    -0.049635    0.082443    0.012921
            20    0      11.866550      5.319710      8.162550    -0.137477    0.072976   -0.063542
            21    0      11.786190      7.486670      9.302710    -0.076300   -0.027897   -0.087734
            22    0      11.484190      9.668090      8.175610    -0.080389   -0.098463   -0.049370
            23    0      11.678900      7.325740      4.499900    -0.111043    0.024809    0.101076
            24    0       6.255410      7.481700      6.744200     0.130985    0.000701   -0.004179
            25    0       8.609110      7.245920      6.955230     0.030307    0.000023    0.023102
            26    0       5.206040      5.416620      7.368910     0.108222    0.085739   -0.012569
            27    0       9.228030     10.859580      8.860270    -0.061154   -0.086521   -0.060458
            28    0       7.342910     11.303540      7.218350     0.023024   -0.134224   -0.037259
            29    1       5.625830      5.506360      9.863250     0.047255    0.074734   -0.082737
            30    1      11.749630      9.644130      5.597420    -0.106782   -0.093288    0.063853
 Energy