BEGIN_CFG
 Size
    30
 Supercell
        16.715298      0.000000      0.000000
         0.000000     15.147390      0.000000
         0.000000      0.000000     14.291303
 AtomData:  id type       cartes_x      cartes_y      cartes_z           fx          fy          fz
             1    0      10.711000      9.393490      4.778240    -0.063557   -0.071563    0.072325
             2    0      10.127180      9.591710      8.841830    -0.081216   -0.038556   -0.074807
             3    0       9.781020      7.076420      9.004490    -0.046371    0.032124   -0.063199
             4    0      11.106250      5.834370      6.905570    -0.117794    0.073420   -0.016908
             5    0      10.319240      8.239700      6.767690    -0.088032   -0.025837    0.024791
             6    0      11.839930      9.981860      6.963780    -0.122079   -0.065003    0.020783
             7    0      12.384380      7.748190      5.795570    -0.122819    0.003096    0.026377
             8    0      12.075350      7.853650      8.346140    -0.107631   -0.031521   -0.051441
             9    0       9.207920     10.437110      6.598110    -0.028455   -0.111607    0.026343
            10    0       9.316840      4.550260      5.564090    -0.069539    0.094299    0.081723
            11    0      10.148530      6.815780      4.756320    -0.052251    0.013872    0.117584
            12    0       9.080120      4.696400      8.307310    -0.026939    0.095040   -0.063975
            13    0       6.886390      4.880670      6.740210     0.078064    0.081478   -0.002353
            14    0       7.488000      6.175610      4.647100     0.020541    0.051282    0.116026
            15    0       5.821770      8.209020      4.551520     0.070837   -0.042965    0.086713
            16    0       8.312890      8.515820      5.156660    -0.011673   -0.026265    0.107300
            17    0       6.518580      7.340120      6.605350     0.107337    0.006662    0.047365
            18    0       8.747050      6.456830      6.726370    -0.033847    0.083399    0.058742
            19    0       6.542740      9.802690      6.374480     0.081601   -0.044711    0.008382
            20    0       4.388620      8.341470      6.731920     0.141815   -0.026232    0.023817
            21    0       8.183810      8.573510      7.793150    -0.000577   -0.070028   -0.060609
            22    0       7.417710     10.629670      8.603120     0.045342   -0.078749   -0.039260
            23    0       5.884520      8.477840      8.771140     0.088075   -0.033649   -0.060749
            24    0       8.086190      8.609850     10.123220     0.012971   -0.008973   -0.108021
            25    0       5.065750      6.107880      8.075070     0.135186    0.029774   -0.063243
            26    0       7.356700      6.469030      8.895320     0.032998    0.071426   -0.048779
            27    0       6.533060      4.248980      9.015000     0.062781    0.071650   -0.074942
            28    0       4.922640      6.043170      5.542940     0.113658    0.050086    0.033215
            29    1       4.822750     10.675940      8.043220     0.096114   -0.109344   -0.036664
            30    1      11.652600      5.433810      9.344630    -0.114540    0.027396   -0.086538
 Energy
        -92.620987203762
 PlusStress:  xx          yy          zz          yz          xz          xy
        -5.57689    -3.16571    -2.89233     0.05108     0.05754     0.04568
 Feature   EFS_by	MultiMTP289
END_CFG

BEGIN_CFG
 Size
    30
 Supercell
        16.883546      0.000000      0.000000
         0.000000     14.685696      0.000000
         0.000000      0.000000     14.584654
 AtomData:  id type       cartes_x      cartes_y      cartes_z           fx          fy          fz
             1    0       4.425400      5.496360      5.904450     0.113853    0.081552    0.018971
             2    0       5.936900      7.273470      5.104860     0.101964   -0.039126    0.065033
             3    0       8.467760      6.890030      5.663190    -0.011352    0.022703    0.058031
             4    0       6.664850      5.519160      6.774820     0.073499    0.132287    0.067847
             5    0      10.518940      6.755380      7.183040    -0.096559    0.034564    0.011032
             6    0      10.587050      8.172430      5.161030    -0.085745   -0.000830    0.081934
             7    0      10.188440      5.520660      9.281620    -0.087520    0.043688   -0.085335
             8    0       7.292860      4.896990      9.187910     0.074605    0.071703   -0.054765
             9    0       9.105300      4.689570      7.125220    -0.008169    0.109680    0.030587
            10    0      11.730450      4.764480      7.317500    -0.121341    0.070333    0.013975
            11    0      12.567180      6.870700      6.089120    -0.119893    0.005089    0.031696
            12    0      10.574770      5.506010      5.145510    -0.054867    0.059010    0.075493
            13    0       8.360260      6.750500      8.252130     0.021275    0.056347   -0.081907
            14    0       7.902360      9.042600      9.283950     0.016944   -0.079594   -0.088980
            15    0       6.129440      7.210540      9.328300     0.091822   -0.015563   -0.119203
            16    0       8.374220      6.850260     10.577370     0.007858    0.008762   -0.092104
            17    0      10.280590      8.092240      9.347420    -0.065177   -0.029645   -0.086001
            18    0      12.352850      6.813280      8.655130    -0.115496    0.021565   -0.050593
            19    0       6.874370      8.185510      7.099520     0.068064   -0.031028    0.035122
            20    0       9.209870      8.786140      7.130470    -0.039531   -0.140029    0.033926
            21    0      11.670940      8.955840      7.360470    -0.121371   -0.055844   -0.012085
            22    0       7.903270      9.263410      5.117960     0.024133   -0.084426    0.101038
            23    0       5.480130      9.633430      5.951060     0.109623   -0.079470    0.063734
            24    0      10.135240     10.519640      5.923380    -0.117030   -0.058369    0.078360
            25    0       5.530540      9.525380      8.479520     0.107486   -0.065886   -0.047870
            26    0       7.513400     10.572700      7.293650     0.094341   -0.124691   -0.031898
            27    0       4.592040      7.495110      7.277280     0.143987   -0.001698   -0.015642
            28    0       9.990400     10.461000      8.523780    -0.091282   -0.070368   -0.047531
            29    1       4.779930      5.164590      8.510040     0.136094    0.084450   -0.058533
            30    1       8.113460      4.608030      4.720100    -0.050215    0.074836    0.105669
 Energy
        -92.598308115124
 PlusStress:  xx          yy          zz          yz          xz          xy
        -5.92094    -3.46585    -2.88317    -0.06022     0.24971    -0.03151
 Feature   EFS_by	MultiMTP289
END_CFG

BEGIN_CFG
 Size
    30
 Supercell
        16.667261      0.000000      0.000000
         0.000000     15.702964      0.000000
         0.000000      0.000000     14.410683
 AtomData:  id type       cartes_x      cartes_y      cartes_z           fx          fy          fz
             1    0       4.253990      7.226280      6.117780     0.112185    0.037928    0.038568
             2    0       6.374190      7.211920      7.084570     0.112065   -0.006847    0.018337
             3    0       9.723030      5.395790      8.789810    -0.094294    0.069463   -0.072599
             4    0       6.855110      5.865420      9.095200     0.091093    0.070013   -0.088610
             5    0       8.019520      5.215300      6.894680    -0.035472    0.071441    0.031970
             6    0      10.358070      4.209900      6.611710    -0.112325    0.097138    0.073091
             7    0       8.528390      7.323310      8.101590     0.002622    0.012084   -0.089093
             8    0       8.926320      9.495720      9.267220    -0.003200   -0.061056   -0.102447
             9    0       6.625290      8.419300      9.390170     0.065537   -0.022470   -0.109440
            10    0       8.723380      7.217270     10.405380    -0.021488   -0.000371   -0.105923
            11    0      10.821970      7.717080      8.989560    -0.105290    0.013538   -0.087177
            12    0       6.728140     10.889770      8.708020     0.088121   -0.093117   -0.030588
            13    0       5.051160      9.290830      7.540400     0.137888   -0.036547   -0.036615
            14    0       5.290290      5.150890      7.204560     0.144171    0.074117    0.025142
            15    0       4.615580      7.080390      8.675040     0.120258    0.000395   -0.074801
            16    0      10.628010      8.271900      4.764130    -0.121099   -0.025669    0.080410
            17    0       8.308130      7.603690      5.475380     0.000041    0.033752    0.063538
            18    0      10.346050      6.533720      6.485310    -0.095433    0.060661    0.032784
            19    0       6.086750      8.852150      5.210430     0.091451   -0.026685    0.091256
            20    0       9.866800      8.912340      6.936580    -0.048381   -0.029013    0.016219
            21    0       7.493070      9.332540      7.178000     0.064087   -0.105984   -0.015222
            22    0       8.571310     10.082150      5.117850     0.022637   -0.088487    0.101045
            23    0      11.180400     10.451740      5.830220    -0.118615   -0.044393    0.048201
            24    0       6.398960     11.113540      6.188420     0.125211   -0.072989    0.044654
            25    0      11.286100     10.129120      8.339550    -0.116823   -0.030591   -0.031845
            26    0       9.096820     11.188820      7.332100    -0.076299   -0.106611   -0.003450
            27    0      12.179570      8.234630      6.857040    -0.162540    0.011607    0.033610
            28    0       9.063490      5.417570      4.717740     0.024967    0.071223    0.091548
            29    1       6.415210      5.986280      4.829310     0.038641    0.053614    0.109923
            30    1      12.193830      5.725140      8.022470    -0.129716    0.073858   -0.052487
 Energy
        -92.652768266080
 PlusStress:  xx          yy          zz          yz          xz          xy
        -5.98576    -3.24401    -2.99135    -0.12269     0.03861     0.37429
 Feature   EFS_by	MultiMTP289
END_CFG

BEGIN_CFG
 Size
    30
 Supercell
        16.851891      0.000000      0.000000
         0.000000     14.864293      0.000000
         0.000000      0.000000     14.428545
 AtomData:  id type       cartes_x      cartes_y      cartes_z           fx          fy          fz
             1    0       4.315150      6.848930      5.904560     0.101085    0.029074    0.035429
             2    0       6.577390      5.519880      9.200820     0.124813    0.033541   -0.068687
             3    0      10.768440      7.457670      9.227340    -0.099673   -0.015233   -0.078876
             4    0       8.471650      6.688710      8.231310    -0.004093    0.074319   -0.071806
             5    0       6.368730      6.680340      7.055230     0.070741    0.037220    0.001603
             6    0      10.011170      5.185320      9.389010    -0.130275    0.042055   -0.094847
             7    0       4.458220      6.745420      8.480050     0.113240    0.016818   -0.050011
             8    0       8.441110      6.873440     10.524250     0.003498    0.025817   -0.096472
             9    0       9.082880     10.658980      7.213720    -0.065322   -0.110087   -0.002818
            10    0      11.162880      9.773180      8.407300    -0.095382   -0.073124   -0.062155
            11    0       7.540880      8.760090      7.116820     0.041792   -0.128578    0.000777
            12    0       8.814250      9.067430      9.237540    -0.015930   -0.050641   -0.085305
            13    0       6.479770      8.009730      9.277050     0.079626   -0.039363   -0.086515
            14    0       6.571980     10.515150      5.938830     0.115936   -0.059683    0.058206
            15    0       5.097190      8.871550      7.236590     0.111620   -0.052963    0.006137
            16    0       6.666000     10.404960      8.525680     0.094082   -0.063247   -0.064223
            17    0       6.342010      5.622700      4.917670     0.112457    0.037925    0.069667
            18    0       8.413760      6.886430      5.533320    -0.000954    0.026577    0.096568
            19    0       7.975070      4.779520      6.677560     0.036972    0.151881    0.076482
            20    0       6.314790      8.195460      5.057020     0.046849   -0.023564    0.084641
            21    0       9.866340      8.320570      7.074420    -0.056387   -0.048520    0.000168
            22    0      12.291180      5.668190      8.432750    -0.136241    0.070762   -0.044371
            23    0      12.213170      7.803410      7.130360    -0.126239   -0.013679    0.014139
            24    0      10.789150      7.496420      5.005650    -0.074782   -0.016124    0.070509
            25    0      10.333190      5.794060      7.045000    -0.078522    0.059666    0.010138
            26    0      11.163740      9.843540      5.879440    -0.098114   -0.071960    0.054416
            27    0       8.771710      9.286070      5.056990    -0.003679   -0.055107    0.098190
            28    0       9.888350      5.123070      4.814700    -0.097726    0.059741    0.089566
            29    1      12.446600      5.569620      5.715440    -0.102273    0.081515    0.034784
            30    1       5.141580      4.514570      7.121740     0.132880    0.074961    0.004666
 Energy
        -92.517219634466
 PlusStress:  xx          yy          zz          yz          xz          xy
        -5.95817    -3.09609    -2.89804    -0.10088    -0.06896     0.08877
 Feature   EFS_by	MultiMTP289
END_CFG

BEGIN_CFG
 Size
    30
 Supercell
        17.896797      0.000000      0.000000
         0.000000     15.161656      0.000000
         0.000000      0.000000     13.555459
 AtomData:  id type       cartes_x      cartes_y      cartes_z           fx          fy          fz
             1    0       7.718280     10.034140      5.999770     0.015569   -0.136817    0.042075
             2    0       7.780310      8.182050      4.397610     0.035852   -0.018198    0.121143
             3    0       7.880930      5.884770      5.122210     0.019716    0.051152    0.062842
             4    0       5.578590     10.016080      7.286590     0.073642   -0.162282   -0.047551
             5    0       5.652520      9.174850      5.054380     0.043541   -0.055012    0.040461
             6    0       5.616370      6.793070      4.636170     0.066303    0.017632    0.073445
             7    0       5.916910      4.934600      6.233070     0.046750    0.185020    0.037537
             8    0       9.824980     10.126710      7.284880    -0.005176   -0.092814   -0.031428
             9    0       9.939950      9.361990      4.987420    -0.022212   -0.061581    0.078914
            10    0      10.002220      7.034040      4.305820    -0.014925    0.026782    0.123442
            11    0      12.150280      8.391160      4.393310    -0.063171   -0.022737    0.094829
            12    0      12.214440      6.027620      4.973340    -0.061661    0.067852    0.069182
            13    0      12.158940      9.848570      6.359270    -0.086946   -0.094177    0.044619
            14    0       6.528380      7.282010      6.793260     0.127191    0.146652   -0.016912
            15    0       8.838830      7.762920      6.746090     0.014655    0.007566    0.008859
            16    0       4.292620      7.946850      6.675160     0.102551   -0.118759    0.027426
            17    0      10.096640      5.394770      6.094580    -0.031532    0.056346    0.015489
            18    0       9.867900      8.567640      9.140850     0.004542   -0.049588   -0.140087
            19    0      10.114110      6.292720      8.499100    -0.026326    0.043074   -0.069401
            20    0      12.245420      5.609300      7.424270    -0.058287    0.079141   -0.028057
            21    0      12.193700      7.715510      8.714470    -0.070087    0.034380   -0.129198
            22    0      13.469420      7.635700      6.485690    -0.093120   -0.022003   -0.010960
            23    0       7.661910      9.447790      8.363510     0.047506   -0.089141   -0.059756
            24    0       7.834880      7.124750      9.037490     0.006683    0.002099   -0.078737
            25    0       8.048150      5.179900      7.510350     0.001411    0.096421   -0.021508
            26    0       5.588020      8.170890      8.865230     0.057590   -0.015657   -0.060656
            27    0       5.841000      5.748000      8.529850     0.034359    0.103678   -0.096790
            28    0      11.152280      7.662930      6.506510    -0.073752   -0.027776    0.009468
            29    1      10.404290      3.815890      8.042520    -0.045203    0.099940   -0.033606
            30    1      11.839730     10.257650      8.869110    -0.045464   -0.051192   -0.025085
 Energy
        -92.240095514650
 PlusStress:  xx          yy          zz          yz          xz          xy
        -3.98161    -3.69758    -2.94052     0.07367     0.00856     0.20752
 Feature   EFS_by	MultiMTP289
END_CFG

BEGIN_CFG
 Size
    30
 Supercell
        17.770610      0.000000      0.000000
         0.000000     14.774258      0.000000
         0.000000      0.000000     13.626558
 AtomData:  id type       cartes_x      cartes_y      cartes_z           fx          fy          fz
             1    0       9.723170      6.319440      4.657310    -0.011933    0.035948    0.103801
             2    0       7.574900      5.011220      7.892670     0.048651    0.111726   -0.065841
             3    0      10.197500      9.770790      6.948780    -0.028726   -0.114520    0.001517
             4    0       9.944840      8.217280      8.826630    -0.089012   -0.074455   -0.084891
             5    0       9.769570      5.795990      8.780070    -0.027217    0.048021   -0.086471
             6    0      11.839100      4.745620      7.844240    -0.071609    0.111377   -0.048005
             7    0      11.772830      9.684660      9.053540    -0.052556   -0.070135   -0.089936
             8    0      12.468980      8.688090      7.034250    -0.081047   -0.067329   -0.047384
             9    0      13.319200      6.393600      6.741070    -0.073623    0.027187   -0.007286
            10    0      12.004810      7.501880      4.786870    -0.061644    0.005044    0.089239
            11    0       9.641480      4.684620      6.560030    -0.022703    0.094651    0.005308
            12    0      10.969120      6.730090      6.823160    -0.047506    0.100873   -0.000075
            13    0      11.794640      5.057330      5.296530    -0.065915    0.090047    0.080548
            14    0       7.551480      5.327550      5.377780     0.031459    0.064332    0.056954
            15    0       7.569070      7.662830      4.515680     0.042440    0.005661    0.116479
            16    0       7.860740      9.785240      5.731300     0.046341   -0.136145    0.074363
            17    0       7.965850      9.512270      8.171290     0.043169   -0.108264   -0.074111
            18    0       7.722170      7.201190      9.026590     0.029774    0.026708   -0.082511
            19    0       5.508430      6.132510      8.803600     0.044243    0.050641   -0.078145
            20    0       5.389990      4.889590      6.634840     0.078886    0.085302    0.012347
            21    0       5.389740      6.509390      4.762890     0.060426    0.038256    0.070545
            22    0       5.652620      8.604170      8.411770     0.056508   -0.038697   -0.100157
            23    0       4.199230      7.145610      6.908110     0.069920   -0.008745   -0.016658
            24    0       9.814890      8.755830      4.670010    -0.018333   -0.104242    0.139064
            25    0       6.539640      7.016950      6.815090     0.073021    0.023191   -0.008722
            26    0       8.810310      7.627300      6.688990    -0.010774   -0.030013    0.019667
            27    0       5.547340      8.854720      5.560250     0.092397   -0.041891    0.092367
            28    0      12.097860      7.059880      8.914930    -0.045352    0.035879   -0.111460
            29    1      11.950520     10.108370      5.005010    -0.069503   -0.073028    0.050001
            30    1       5.969150     10.819850      7.155110     0.060216   -0.087381   -0.010548
 Energy
        -92.149571800003
 PlusStress:  xx          yy          zz          yz          xz          xy
        -4.10679    -3.59424    -3.12259     0.09897    -0.17769     0.07713
 Feature   EFS_by	MultiMTP289
END_CFG

BEGIN_CFG
 Size
    30
 Supercell
        17.811079      0.000000      0.000000
         0.000000     15.667165      0.000000
         0.000000      0.000000     13.419951
 AtomData:  id type       cartes_x      cartes_y      cartes_z           fx          fy          fz
             1    0       7.826690      5.659810      5.075430     0.027617    0.131228    0.120564
             2    0       7.786840      5.277910      7.530860     0.030396    0.129878   -0.042201
             3    0      12.015960      9.553660      8.405730    -0.058250   -0.079216   -0.095217
             4    0      11.151850      7.620890      6.805070    -0.047582    0.035154   -0.002392
             5    0       9.910600      6.078300      8.605260    -0.013158    0.070781   -0.099889
             6    0       9.953830      6.772490      4.443880    -0.025706    0.032283    0.117733
             7    0       9.998370      5.227000      6.320020    -0.037820    0.089567    0.038227
             8    0      12.180620      5.533200      7.582070    -0.086994    0.082363   -0.060510
             9    0      12.028550      7.299760      9.144100    -0.038714   -0.006167   -0.070504
            10    0      12.028040      9.980450      6.005050    -0.069719   -0.078058    0.036690
            11    0       8.838200      7.482900      6.712530     0.027525   -0.001277    0.004538
            12    0      13.395110      8.028440      6.955080    -0.129239   -0.065734   -0.026716
            13    0      12.153340      8.079700      4.575330    -0.048042   -0.023953    0.099594
            14    0       7.665160      7.252060      8.960970     0.025452    0.018403   -0.103453
            15    0       7.881540     10.214620      5.853840     0.009223   -0.082315    0.037275
            16    0       5.613660      6.842120      5.130650     0.079537    0.028700    0.096824
            17    0       5.551230      6.358410      7.836180     0.080333    0.051607   -0.069393
            18    0       5.704410     10.438780      7.185270     0.074290   -0.103534   -0.019163
            19    0       5.672370      9.365780      4.925860     0.060734   -0.071889    0.066155
            20    0       5.555850      8.610140      8.917140     0.059573   -0.033155   -0.076591
            21    0       4.303350      8.308810      6.752500     0.080301    0.003162    0.005648
            22    0       6.653470      8.281240      6.812610     0.064478   -0.050820   -0.025221
            23    0       9.852160      8.448690      9.095020    -0.024801   -0.042934   -0.089723
            24    0       7.772100      9.683940      8.463320     0.012031   -0.065667   -0.109733
            25    0      10.112130     11.434300      5.369930    -0.039970   -0.090195    0.064872
            26    0       7.741100      8.036960      4.511810     0.011620   -0.005638    0.079891
            27    0       9.889980      9.943710      7.243730    -0.018665   -0.004061   -0.033849
            28    0       9.934430      9.111740      4.924800    -0.018397   -0.018946    0.066808
            29    1       5.773120      4.486920      6.118280     0.070236    0.078979    0.008342
            30    1      12.222120      5.594730      5.036960    -0.056290    0.071454    0.081394
 Energy
        -92.232197754462
 PlusStress:  xx          yy          zz          yz          xz          xy
        -4.05866    -3.19395    -3.07557    -0.15936     0.02274    -0.15120
 Feature   EFS_by	MultiMTP289
END_CFG

BEGIN_CFG
 Size
    30
 Supercell
        17.928790      0.000000      0.000000
         0.000000     15.241410      0.000000
         0.000000      0.000000     13.471667
 AtomData:  id type       cartes_x      cartes_y      cartes_z           fx          fy          fz
             1    0       9.909550      5.285040      5.929610    -0.032306    0.078832    0.022173
             2    0      10.051080      5.864300      8.367510    -0.017363    0.044820   -0.077933
             3    0      10.187350      8.175610      9.101920    -0.036774   -0.026789   -0.109723
             4    0      10.180520     10.039330      7.572560    -0.026008   -0.123195   -0.041547
             5    0      12.145930      6.011120      4.979820    -0.052287    0.058598    0.049965
             6    0      12.095960      5.094290      7.201410    -0.069139    0.123574   -0.012639
             7    0      12.277740      6.786660      8.948260    -0.056348    0.022175   -0.066835
             8    0      12.335960      8.422920      4.789800    -0.070953   -0.031961    0.115628
             9    0      13.586350      7.232670      6.780790    -0.112193   -0.013543   -0.004024
            10    0       7.844110      5.454340      7.298630     0.037944    0.047149   -0.021149
            11    0       7.947400      6.989590      9.149120     0.017997    0.058379   -0.100947
            12    0      11.296430      7.428480      6.785010    -0.097166    0.017963   -0.015378
            13    0       9.014110      7.800950      6.782270     0.011731    0.031436   -0.008911
            14    0      12.396930      9.092060      8.241640    -0.078940   -0.073663   -0.078783
            15    0       7.985630      9.353520      8.624800     0.018385   -0.063782   -0.089566
            16    0       8.022110     10.160290      6.340250     0.019814   -0.076821    0.038185
            17    0       7.985430      8.654620      4.440020     0.012079   -0.034381    0.126719
            18    0       7.835020      6.329070      4.953860     0.019604    0.040566    0.074402
            19    0       5.711070      5.613380      6.019030     0.080794    0.052281    0.034048
            20    0       5.732030      5.974620      8.446300     0.066375    0.082200   -0.079654
            21    0       5.813050      8.265780      9.162180     0.037494   -0.003233   -0.078064
            22    0       5.701570      7.620710      4.672430     0.050864    0.005672    0.120385
            23    0       4.423160      7.605970      7.009600     0.123082    0.015858   -0.010396
            24    0      10.166750      9.612420      5.156060    -0.037882   -0.106020    0.094633
            25    0      10.095380      7.299510      4.484300    -0.011272   -0.007149    0.084205
            26    0       6.713170      7.783970      6.908660     0.051764   -0.024365   -0.018190
            27    0       5.726260      9.927710      7.429130     0.092500   -0.083212   -0.040781
            28    0       7.534700      4.016190      5.434010     0.075000    0.100163    0.034950
            29    1      12.319460     10.568670      6.181430    -0.060826   -0.051580    0.010829
            30    1       5.897620     10.157380      4.884600     0.044031   -0.059971    0.048398
 Energy
        -92.179912204522
 PlusStress:  xx          yy          zz          yz          xz          xy
        -4.32291    -2.97239    -3.00213     0.10261    -0.04894    -0.24148
 Feature   EFS_by	MultiMTP289
END_CFG

BEGIN_CFG
 Size
    30
 Supercell
        16.709968      0.000000      0.000000
         0.000000     15.132892      0.000000
         0.000000      0.000000     14.097735
 AtomData:  id type       cartes_x      cartes_y      cartes_z           fx          fy          fz
             1    0       7.347010      9.442320      5.654630     0.022816   -0.062387    0.029222
             2    0       7.389300      7.278180      4.485660     0.020113   -0.001880    0.115351
             3    0       7.377630      5.264990      5.859130     0.044053    0.112346    0.058561
             4    0       7.600430      5.054360      8.242580     0.003815    0.100361   -0.053097
             5    0       7.537700      7.144990      9.421810     0.009689    0.027265   -0.115499
             6    0       7.350380      9.219140      8.280740     0.044489   -0.050709   -0.049482
             7    0       5.280280      9.713140      7.058470     0.108304   -0.096913   -0.001740
             8    0       5.200110      8.588480      4.815930     0.069575   -0.040781    0.096541
             9    0       5.189610      6.154110      5.051730     0.063364    0.009348    0.062116
            10    0      11.109640      7.401650      6.949890    -0.103355    0.013487   -0.004460
            11    0       5.198690      7.884720      8.866810     0.095470   -0.052511   -0.103222
            12    0       3.877970      7.566070      6.742900     0.136911    0.003316   -0.014216
            13    0       9.763520      6.065020      9.087630    -0.069449    0.064007   -0.109575
            14    0       9.585590      8.458560      9.022540    -0.054224   -0.022397   -0.070197
            15    0       9.446510      9.763560      6.804550    -0.055136   -0.084238    0.034827
            16    0       9.536850      8.466070      4.779470    -0.056222   -0.024156    0.110734
            17    0       9.564150      6.069060      4.844170    -0.046043    0.060170    0.115266